LAMMPS (30 Mar 2026)
  using 1 OpenMP thread(s) per MPI task
# ─────────────────────────────────────────────────────────────
# BCD-MDI primary-core reaction smoke test
# Reaction: BCD-OH + O=C=N-MDI -> urethane
#
# Run from inside reaction_templates_primary_core/:
#   lmp -in in.primary_core
# ─────────────────────────────────────────────────────────────

units           real
atom_style      full
newton          on

boundary        p p p
dimension       3

# ── Force field: preserve BCD-MDI system terms ────────────────
bond_style      hybrid harmonic
angle_style     hybrid harmonic
dihedral_style  hybrid multi/harmonic charmm
special_bonds   lj 0.0 0.0 0.5 coul 0.0 0.0 0.8333

pair_style      lj/cut/coul/dsf 0.25 9.0 9.0
pair_modify     tail yes mix arithmetic

read_data       primary_core.data                           extra/bond/per/atom      5                           extra/angle/per/atom     15                          extra/dihedral/per/atom  20                          extra/special/per/atom   30
Reading data file ...
  orthogonal box = (-5.16 -3.69 -4.27) to (87.84 89.31 88.73)
  1 by 1 by 1 MPI processor grid
  reading atoms ...
  5840 atoms
  reading velocities ...
  5840 velocities
  scanning bonds ...
  9 = max bonds/atom
  scanning angles ...
  21 = max angles/atom
  scanning dihedrals ...
  43 = max dihedrals/atom
  orthogonal box = (-5.16 -3.69 -4.27) to (87.84 89.31 88.73)
  1 by 1 by 1 MPI processor grid
  reading bonds ...
  6080 bonds
  reading angles ...
  10340 angles
  reading dihedrals ...
  18720 dihedrals
Finding 1-2 1-3 1-4 neighbors ...
  special bond factors lj:    0        0        0.5     
  special bond factors coul:  0        0        0.8333  
     4 = max # of 1-2 neighbors
     7 = max # of 1-3 neighbors
    18 = max # of 1-4 neighbors
    51 = max # of special neighbors
  special bonds CPU = 0.002 seconds
  read_data CPU = 0.070 seconds

# Pair coefficients
pair_coeff      1  1   0.1094000   3.3996695   # CG
pair_coeff      2  2   0.0157000   2.2931733   # H2
pair_coeff      3  3   0.1700000   3.0000123   # OS
pair_coeff      4  4   0.0157000   2.4713530   # H1
pair_coeff      5  5   0.2104000   3.0664734   # OH
pair_coeff      6  6   0.0000000   0.0000000   # HO
pair_coeff      7  7   0.1094000   3.3996700   # c3
pair_coeff      8  8   0.0157000   2.6495330   # hc
pair_coeff      9  9   0.0860000   3.3996700   # ca
pair_coeff      10 10   0.0150000   2.5996420   # ha
pair_coeff      11 11   0.1700000   3.2499990   # ne
pair_coeff      12 12   0.2100000   3.3996700   # c1
pair_coeff      13 13   0.2100000   2.9599220   # o
pair_coeff      14 14   0.0157000   1.0690780   # hn
pair_coeff      15 15   0.1700000   3.2499990   # n
pair_coeff      16 16   0.0860000   3.3996700   # c

# ── Reaction templates ────────────────────────────────────────
molecule        pre_bcd_mdi       ../BCD-MDI.pre
ERROR: Invalid bond type OS-CG in Bonds section of molecule file: 1 OS-CG             1      4 (src/molecule.cpp:3112)
Last input line: molecule pre_bcd_mdi ../BCD-MDI.pre 
                                      ^^^^^^^^^^^^^^
